358
Atoms. Timestep: 0
3 11.0783 81.1157 35.3031
4 12.8654 82.0945 32.2148
5 11.3177 81.622 28.8874
4 12.8154 79.3438 26.3862
6 12.0288 79.6825 22.7861
7 14.1328 78.0734 20.2023
8 15.3117 79.9617 17.2453
9 16.0012 78.2632 14.0317
10 19.3227 78.4929 12.4171
11 19.9337 77.0346 9.07225
12 22.4813 78.4751 6.80889
13 24.0521 81.7387 7.56653
14 22.5747 84.0102 10.0876
15 18.9059 84.3067 10.4611
11 17.1132 82.4672 13.1234
11 13.4533 81.9415 12.973
3 11.4081 82.0419 16.0547
6 7.71602 81.825 15.9221
5 5.61444 84.0426 18.01
3 1.94481 84.1889 17.5665
5 0.182897 87.4382 17.4082
3 -3.50212 87.6382 17.6742
16 -5.38511 85.4076 19.9489
4 -4.9913 81.7316 19.7931
4 -2.71065 80.1406 17.3505
15 -0.802923 82.1882 14.9311
17 2.59736 81.2208 13.8424
18 4.65873 83.5387 11.8273
16 8.35532 83.4506 11.9907
7 10.2653 86.2906 13.3987
7 13.6349 85.7977 14.8447
18 15.072 88.2931 17.1676
13 16.3048 91.5468 15.9124
16 18.2582 93.8158 18.0832
3 18.5895 97.4068 17.2539
19 15.6083 99.516 16.6564
19 12.2701 98.5357 17.9167
10 9.43603 97.9973 15.5981
8 8.23795 94.5994 14.7547
20 5.9093 94.0407 11.9335
7 4.6393 90.6631 11.1094
4 2.48443 90.0552 8.16304
19 -0.912446 91.5048 7.92472
5 -3.46251 90.0893 5.64745
21 -3.77493 91.2893 2.16181
17 -1.87048 94.2314 0.974193
9 -2.41173 95.5399 -2.44393
8 -0.697891 93.9924 -5.33485
8 2.96694 94.2676 -5.76498
13 5.23064 94.6707 -2.86464
5 7.85641 92.1846 -2.0828
14 7.07796 89.3063 0.105217
17 3.55111 88.5594 0.94255
20 1.97971 85.3649 -0.0663434
5 3.33394 82.1335 1.12249
21 4.80502 81.8099 4.50128
21 3.26307 83.5262 7.39188
9 0.87952 86.3013 6.84353
11 -1.47983 87.3561 9.49138
10 -5.11987 87.4817 8.84092
19 -7.2262 90.1082 10.3728
13 -10.4547 89.2545 11.9642
9 -10.9417 85.9953 13.6468
19 -9.20503 85.2157 16.8202
19 -10.2314 86.8031 20.0014
16 -8.96006 90.1291 21.0116
11 -7.37031 92.4104 18.5703
7 -7.89077 96.0692 18.7578
9 -7.83918 98.1665 15.7118
10 -5.28315 100.796 15.2133
3 -4.37697 101.916 11.8044
16 -1.96782 104.671 11.2584
19 0.855324 104.291 8.89774
18 4.11111 102.953 10.0339
13 7.16274 103.363 7.98239
5 10.1785 101.322 8.63845
21 13.3403 101.953 6.8235
11 16.5694 100.728 8.15184
3 18.6552 98.4009 6.17202
19 17.3442 96.8891 3.06057
3 13.7038 96.5161 2.51094
19 11.249 98.7337 4.16859
8 7.74883 97.6198 4.60743
19 5.35366 99.5738 6.63944
3 2.08767 98.1391 7.61633
11 -0.176153 99.9589 9.90603
8 -0.117434 99.3417 13.5535
19 -1.92432 96.4716 15.0343
15 -1.11506 95.2135 18.4172
13 -3.18168 92.5776 19.9869
16 -1.64826 89.8037 21.8964
7 1.71102 88.4766 21.0922
19 3.20653 85.6601 22.9697
7 6.45222 84.1953 21.9637
4 6.72661 80.6339 20.9979
17 3.81002 78.367 21.2081
15 2.48839 77.2977 24.493
3 3.92115 78.6677 27.616
3 5.9054 81.79 27.5725
7 4.40847 84.9891 28.6729
9 1.47994 86.4505 26.9478
7 1.36992 90.0956 26.3284
6 -1.7541 91.8003 25.3221
22 -1.70854 93.9946 22.3425
15 1.12633 96.3004 21.7372
7 1.87426 97.7514 18.4145
18 2.72037 95.5764 15.5449
3 2.52945 96.7804 12.0514
6 1.23444 94.5737 9.37762
14 3.20141 93.918 6.3125
16 2.28377 95.3568 3.02827
9 4.56163 95.245 0.110741
15 8.15605 96.0443 0.48086
4 10.0873 97.4483 -2.34532
3 12.734 95.5065 -4.05427
5 15.53 94.0149 -2.14381
16 14.8256 91.9865 0.869104
18 11.4877 90.46 1.33903
5 10.8762 86.9333 0.4021
14 13.6544 84.4951 0.287179
14 15.1505 83.1575 3.39633
9 13.0255 81.6702 6.03574
18 11.7809 83.717 8.85602
13 8.92945 86.0359 8.41347
3 8.74807 89.1713 10.3684
5 11.6872 90.3392 12.2908
8 11.401 91.1822 15.8809
3 12.8172 94.3424 17.183
12 14.8518 94.3698 20.2749
14 16.6322 97.4344 21.3392
11 15.3554 99.4764 24.147
4 13.1827 102.405 23.5268
22 14.1708 105.033 21.1181
5 14.5966 104.267 17.5234
19 12.0796 102.269 15.69
7 9.10212 103.863 14.1804
10 6.9595 106.156 16.1416
10 5.47977 105.14 19.3769
7 3.6258 101.96 19.7675
8 5.29027 98.9583 21.1486
4 7.69067 97.0292 19.0955
7 10.8416 95.7345 20.5384
18 11.7803 96.5155 24.0309
13 9.22779 97.7058 26.4283
10 6.36558 95.5604 27.3641
8 6.74006 92.9157 29.9239
12 9.06947 93.3561 32.7643
15 7.9134 94.9448 35.899
15 4.72584 93.8672 37.4349
9 3.0449 90.7923 36.2488
8 4.7044 88.517 33.8473
7 8.12602 87.2402 34.4362
13 10.448 88.9983 36.7176
15 13.9998 89.5185 35.8192
10 14.9628 91.1089 32.6207
5 17.8715 89.8756 30.697
18 17.3988 87.8403 27.6445
19 19.8767 85.2771 26.6525
18 20.9901 84.9684 23.1367
11 22.5432 81.8428 21.9113
8 23.3413 81.3674 18.3302
19 24.6773 78.1357 17.1242
22 27.2153 77.992 14.438
13 27.1448 75.2962 11.904
4 24.0391 74.5078 10.0538
13 22.0624 71.4878 10.8654
14 22.3352 69.8735 14.1845
15 19.5775 70.0945 16.6396
4 18.1159 73.366 17.5559
3 19.5544 76.5096 16.236
3 19.656 79.5844 18.2912
6 18.4748 79.5676 21.7974
8 16.7768 82.5132 23.2552
12 15.7945 82.5615 26.8233
8 13.8022 85.3403 28.2363
3 14.5749 86.7143 31.5829
3 17.362 85.3608 33.6065
16 20.1242 83.4642 32.0361
13 19.6498 79.9724 30.9096
19 21.9457 77.2766 31.9831
9 23.8358 75.3153 29.4795
11 26.2901 76.9992 27.282
11 28.2039 79.9045 28.54
9 31.8017 79.623 29.3575
3 33.3097 81.734 31.9954
19 31.2229 83.9446 34.1039
8 29.3463 86.753 32.595
19 31.0713 89.8784 31.6219
11 29.3937 93.1605 31.9451
8 30.0193 95.8712 29.5049
10 28.5568 99.2394 29.9585
7 26.1345 100.62 27.5256
16 26.8051 103.767 25.7015
22 24.0492 105.673 24.1333
9 20.5213 104.68 24.6448
14 18.622 102.946 21.9838
11 19.9466 99.8653 20.4214
20 23.2481 98.5187 21.4068
15 25.8625 100.73 22.8109
7 28.9085 99.3142 24.3592
21 32.2578 100.665 23.5504
8 34.5111 98.8994 21.2068
13 38.0819 98.3715 22.022
15 40.7233 98.6763 19.4476
7 41.1811 96.078 16.8528
6 43.8563 93.5427 17.158
7 44.2609 90.9194 14.5806
14 47.2854 88.79 14.4777
19 50.5504 90.1699 13.4169
3 50.8974 93.7137 12.4118
8 47.9397 95.7593 11.5508
16 45.5506 96.8536 14.1556
8 42.2139 98.1711 13.2473
17 40.6519 100.851 15.2624
9 42.7159 103.036 17.4192
6 41.4099 104.241 20.6649
3 37.766 104.354 21.294
17 35.3416 103.357 18.6828
6 31.8725 102.436 19.5763
14 30.544 99.0539 18.8737
5 26.9837 98.2632 19.5015
7 25.6585 94.8356 19.0798
13 22.7087 94.1837 16.9464
16 21.6052 90.7209 16.2419
3 20.9941 89.5178 12.796
16 22.8074 90.8803 9.87297
19 25.2856 88.8584 8.01098
8 28.8199 89.9435 7.89554
12 29.9734 92.4612 10.3472
7 29.0813 96.0235 9.90139
3 31.6532 98.4721 8.86755
4 30.8171 102.027 8.27304
7 33.4526 104.579 8.74991
13 36.885 103.436 9.52767
6 37.819 99.9252 8.8286
7 38.181 98.7534 5.33821
22 41.5249 98.8207 3.75455
6 44.4998 98.0125 5.79879
8 44.6108 94.8387 7.69502
15 43.55 91.6961 6.05447
9 44.0189 91.2734 2.40916
14 46.5173 88.8748 1.10821
5 46.1499 85.2846 1.92457
3 42.834 84.0534 3.00668
14 39.819 85.9614 2.02877
7 39.8525 87.9074 -1.1187
4 37.3728 90.5637 -1.80693
8 34.3665 89.8787 -3.85083
5 32.1886 92.6545 -4.96485
15 30.8389 95.0636 -2.50274
3 31.5313 94.655 1.10883
6 32.4809 91.3787 2.54283
11 35.5847 89.6207 1.55648
12 35.4506 86.4046 -0.269554
5 37.1805 83.3782 0.973281
4 38.1371 80.6635 -1.35117
17 37.992 77.1171 -0.313651
6 40.9708 75.4494 1.11513
9 43.1698 77.2481 3.4864
7 41.8912 78.4769 6.73258
19 43.836 78.0063 9.84449
16 46.5428 80.3511 10.7786
8 46.7505 83.7218 9.26426
4 45.3292 86.6749 10.9797
14 43.7429 86.3465 14.3059
5 40.7842 88.3646 15.236
16 40.7799 90.4712 18.2772
8 37.781 92.4311 19.2004
9 38.0294 95.3553 21.4541
8 35.6032 95.8406 24.2053
3 36.7533 96.5256 27.6548
3 38.7902 94.0502 29.4996
9 40.5266 91.3146 27.7138
3 40.5132 91.1295 24.0178
11 38.2165 88.8479 22.2239
9 39.4207 85.6682 20.7648
8 39.087 84.9628 17.1483
19 41.4281 82.6602 15.4445
4 40.1908 80.0169 13.17
6 36.6436 78.9649 13.2326
13 33.922 81.471 13.2676
11 33.8005 84.1999 10.7717
16 31.7742 83.8767 7.6931
8 30.1109 80.6779 6.8622
9 30.4734 79.1739 3.5008
7 28.3215 80.2921 0.706771
19 25.8969 77.9863 -0.87382
15 25.7196 77.6632 -4.55466
14 27.7777 75.177 -6.36357
3 29.5526 72.4576 -4.58958
9 32.0359 73.2119 -1.95319
16 34.2782 76.1415 -2.23188
8 33.1585 79.5174 -1.20845
17 34.0465 80.9194 2.0976
8 32.8669 84.2801 3.09451
19 35.0102 86.5312 5.10121
3 33.6253 88.4925 7.91692
18 33.5098 92.1877 7.76202
12 30.9767 93.9223 5.69579
3 31.2657 97.5362 4.96538
12 28.2879 99.7326 4.96408
13 28.6116 103.4 4.5971
5 28.0396 105.662 7.46771
4 26.067 108.77 7.07806
4 26.3796 111.526 9.52671
4 26.0593 110.857 13.151
19 24.5529 107.704 14.3658
3 26.0834 104.423 13.6029
4 29.7425 104.064 13.1793
8 31.6591 101.48 15.0098
20 30.9901 97.8865 14.4412
5 27.5411 96.7174 13.7977
8 26.3194 93.5056 15.1663
3 25.2828 90.778 12.8923
13 27.8465 88.6301 11.3138
7 30.9892 88.013 13.1633
18 30.7423 87.7536 16.845
5 27.6514 86.3288 18.2973
3 27.3053 82.6608 18.6055
22 29.5501 80.9387 20.9828
11 30.8932 82.9269 23.7982
11 28.5466 84.41 26.2456
16 25.9579 86.8448 25.2141
7 23.3105 87.9092 27.5686
18 20.7665 90.4152 26.6012
13 20.4856 93.6168 28.4336
22 17.8975 94.1304 31.0262
13 18.2188 96.8724 33.489
10 21.0644 99.2301 33.2976
10 23.8325 98.6154 30.9215
22 26.0053 95.6443 31.2844
7 26.1982 93.0187 28.6824
3 26.9709 89.5013 29.5386
18 29.8933 87.7201 28.128
14 30.8889 84.399 29.4268
6 32.2543 81.7768 27.2006
14 30.0708 79.5474 25.2105
14 30.5217 75.8759 25.2541
23 0.333673 24.3564 -28.044
24 4.15468 27.3119 -24.4852
23 2.08738 27.3931 -18.853
23 5.51131 31.1214 -15.6306
24 2.55423 32.9418 -10.7376
24 6.30476 32.8982 -6.05737
24 6.26991 38.222 -3.29607
24 9.5696 37.8878 1.703
24 6.98073 40.8957 6.20253
23 10.9222 41.6553 10.6626
23 8.05064 43.3404 15.6545
24 10.3383 48.4731 17.7583
23 14.9075 47.3503 21.4852
24 13.096 47.6918 27.1971
23 13.9322 53.2543 29.2874
24 11.8728 53.7266 34.9053
23 16.4508 54.818 38.6291
23 14.7423 58.2871 43.2155
24 19.3059 58.803 47.0756
24 17.5794 61.7924 51.9823
