358
Atoms. Timestep: 201700
3 11.1316 81.0393 35.2437
4 12.9924 81.8137 32.1791
5 11.4487 81.4946 28.8612
4 12.6391 79.0233 26.4055
6 11.9785 79.653 22.859
7 13.9319 78.1354 20.1057
8 15.5037 79.9339 17.2319
9 15.9963 78.1419 14.0027
10 19.4077 78.2275 12.5466
11 19.9952 76.9406 9.11831
12 22.493 78.5706 6.88826
13 24.2454 81.7235 7.62045
14 22.7629 83.878 10.2178
15 19.077 84.2709 10.5481
11 17.2549 82.6307 13.2178
11 13.5832 81.8209 12.7714
3 11.3708 82.092 15.7271
6 7.69013 81.8307 15.9837
5 5.60904 84.1541 17.9855
3 1.9253 84.3639 17.7613
5 0.104274 87.5437 17.3776
3 -3.50575 88.0124 17.7615
16 -5.32421 85.51 19.8477
4 -5.02503 81.8291 19.5841
4 -2.86357 80.0388 17.1922
15 -0.950575 82.0034 14.7515
17 2.49519 81.2893 13.7594
18 4.57181 83.5861 11.7287
16 8.25062 83.4838 11.9974
7 10.2242 86.2431 13.4752
7 13.5882 85.7629 14.8503
18 15.031 88.2946 17.1673
13 16.0819 91.6127 15.9407
16 18.3392 93.8004 17.8908
3 18.6685 97.3994 17.2966
19 15.6737 99.5076 16.7681
19 12.3209 98.3803 17.8757
10 9.50015 97.872 15.5576
8 8.34804 94.5766 14.6459
20 5.97333 94.1257 11.8507
7 4.78443 90.7342 11.0148
4 2.51582 90.0873 8.21109
19 -0.913602 91.3845 8.04823
5 -3.38045 90.1278 5.58911
21 -3.72954 91.1633 2.09469
17 -1.90229 94.1533 0.997366
9 -2.39432 95.4655 -2.42392
8 -0.655906 93.8887 -5.30545
8 3.05506 94.2517 -5.69218
13 5.31765 94.6558 -2.81586
5 7.89842 92.1038 -2.07381
14 7.25971 89.1977 0.0708336
17 3.79752 88.5884 1.25747
20 2.19057 85.5093 -0.139007
5 3.24501 82.1106 0.999322
21 4.73783 81.6969 4.46049
21 3.02475 83.4572 7.23574
9 0.872074 86.4018 6.7966
11 -1.62759 87.1558 9.44762
10 -5.21799 87.4563 8.7933
19 -7.26186 90.0766 10.438
13 -10.5464 89.2066 11.9413
9 -11.0238 85.936 13.5848
19 -9.07876 85.3258 16.7347
19 -10.1976 86.8378 19.8749
16 -8.89199 90.0649 21.0416
11 -7.24667 92.4004 18.7476
7 -7.61024 96.0616 18.7434
9 -7.89795 98.2069 15.754
10 -5.31181 100.855 15.2228
3 -4.36959 101.773 11.8167
16 -2.17893 104.693 11.1451
19 0.766376 104.315 8.92671
18 4.03412 102.793 9.91602
13 6.99342 103.315 7.82641
5 10.1319 101.509 8.71334
21 13.3379 101.927 6.90223
11 16.6225 100.83 8.19693
3 18.5835 98.4209 6.23316
19 17.4397 96.7907 3.18039
3 13.7999 96.5686 2.59558
19 11.4034 98.8642 4.28485
8 7.97611 97.6537 4.86456
19 5.22849 99.7492 6.26656
3 2.16189 98.2344 7.55985
11 0.0308556 99.988 10.0412
8 -0.178248 99.3938 13.6255
19 -1.83616 96.333 14.8559
15 -1.4142 95.296 18.4182
13 -3.34317 92.6549 20.1351
16 -1.78363 89.6922 21.7499
7 1.62873 88.5988 20.8768
19 2.96589 85.7863 22.8438
7 6.2968 84.3457 22.1062
4 6.6728 80.7221 21.3609
17 3.82176 78.3552 21.2338
15 2.45146 77.2958 24.4764
3 3.91814 78.7003 27.5881
3 5.93343 81.7316 27.3897
7 4.47238 84.9053 28.548
9 1.51983 86.5049 27.0378
7 1.44857 90.2045 26.3415
6 -1.75042 91.8267 25.3957
22 -1.7069 94.0326 22.3949
15 1.13368 96.2998 21.7775
7 1.67294 97.7774 18.3564
18 2.72248 95.7274 15.4999
3 2.44462 96.7722 11.9717
6 1.14032 94.4053 9.40619
14 3.23221 93.71 6.37419
16 2.51453 95.423 3.17077
9 4.65192 95.0115 0.196779
15 8.18719 95.9926 0.412939
4 10.1716 97.619 -2.25877
3 12.7734 95.6192 -3.89477
5 15.5836 94.0502 -2.15684
16 14.784 92.2032 0.91579
18 11.4891 90.5316 1.24649
5 10.9799 87.0129 0.268523
14 13.6737 84.5744 0.264613
14 15.1011 82.9741 3.27943
9 12.8988 81.6477 5.91099
18 11.7531 83.8471 8.72608
13 8.81711 86.1053 8.41564
3 8.77624 89.2966 10.3911
5 11.7821 90.2689 12.3267
8 11.3655 91.179 15.8594
3 12.6438 94.3528 17.2509
12 14.7713 94.2307 20.281
14 16.3969 97.424 21.2928
11 15.2981 99.4461 24.1257
4 13.1653 102.408 23.5209
22 14.5121 104.909 21.1511
5 14.7462 104.399 17.4693
19 12.2853 102.337 15.5929
7 9.12374 103.897 14.2787
10 6.87629 106.101 16.2057
10 5.69865 105.178 19.5922
7 3.60263 102.18 20.0567
8 5.14872 98.9703 20.9413
4 7.79822 97.2241 19.1176
7 11.0075 96.1532 20.5382
18 11.6957 96.5266 24.152
13 9.00395 97.8028 26.4146
10 6.23438 95.5202 27.3004
8 6.76043 92.8438 29.7198
12 9.04229 93.4589 32.6601
15 7.73168 94.9671 35.7676
15 4.60934 93.7931 37.4189
9 2.98053 90.7614 36.0759
8 4.81567 88.4331 33.8365
7 8.2294 87.2425 34.6526
13 10.4551 88.9806 36.9369
15 13.913 89.5914 35.7737
10 15.1347 91.2984 32.7242
5 17.9547 89.8923 30.7929
18 17.4368 87.7312 27.8506
19 19.9517 85.2689 26.6246
18 21.0711 84.9417 23.1287
11 22.5584 81.8315 21.7853
8 23.5296 81.4459 18.2397
19 24.8821 78.2322 17.0585
22 27.3199 78.0545 14.2647
13 27.0771 75.402 11.7817
4 23.9446 74.5008 10.0072
13 22.0354 71.4603 10.8005
14 22.4139 69.951 14.1365
15 19.6084 69.9332 16.5822
4 18.2965 73.2091 17.6395
3 19.5487 76.3961 16.2964
3 19.5172 79.5934 18.2207
6 18.577 79.596 21.8403
8 16.9033 82.5407 23.3635
12 15.8829 82.7042 26.8674
8 13.6596 85.4091 28.1512
3 14.625 86.79 31.4748
3 17.3349 85.3504 33.4979
16 20.1094 83.6179 31.8282
13 19.5603 80.0471 30.849
19 21.9975 77.4681 31.8974
9 23.7872 75.3702 29.4125
11 26.364 76.9527 27.2574
11 28.1668 80.0662 28.3693
9 31.6722 79.8569 29.4448
3 33.4669 81.7732 31.9957
19 31.2368 83.8129 34.0972
8 29.4706 86.753 32.7606
19 31.1771 89.8916 31.7966
11 29.0448 92.861 31.8881
8 29.6568 95.6597 29.6103
10 28.5096 99.1765 30.1722
7 26.1723 100.584 27.6354
16 26.9736 103.481 25.4129
22 24.0188 105.393 24.1917
9 20.5103 104.559 24.7007
14 18.7127 103.016 21.8912
11 19.9845 100.015 20.1501
20 23.2445 98.8084 21.2038
15 26.0078 100.809 22.7365
7 29.0153 99.405 24.3978
21 32.4119 100.652 23.5447
8 34.6853 98.9072 21.3151
13 38.2747 98.296 22.0321
15 40.6999 98.9832 19.2509
7 41.3058 96.3247 16.8154
6 43.7675 93.5458 17.1538
7 44.4038 91.0739 14.5293
14 47.1601 88.6837 14.2812
19 50.4952 90.1482 13.5793
3 50.9089 93.6594 12.6725
8 47.9789 95.7703 11.858
16 45.6773 97.0124 14.5402
8 42.4121 98.2877 13.4924
17 40.5603 100.817 15.4306
9 42.7152 103.13 17.3043
6 41.4618 104.466 20.5279
3 37.888 104.221 21.3899
17 35.3566 103.418 18.703
6 31.8294 102.703 19.4287
14 30.5637 99.2903 18.9265
5 27.1259 98.2718 19.8179
7 25.7412 94.8729 19.2399
13 22.9622 93.9959 16.9632
16 21.5721 90.671 16.1797
3 20.9074 89.2917 12.7935
16 22.6921 90.8188 9.9028
19 25.2655 88.7678 8.11591
8 28.7934 89.977 7.99743
12 29.8662 92.4368 10.5202
7 28.9851 95.9893 10.1
3 31.5142 98.3513 8.59357
4 30.8133 101.933 8.02212
7 33.3691 104.511 8.65933
13 36.7444 103.251 9.35617
6 37.9104 99.8548 8.71628
7 38.2911 98.5828 5.30202
22 41.5806 98.8514 3.72151
6 44.645 97.9604 5.55625
8 44.3855 94.923 7.67424
15 43.4653 91.7143 5.97911
9 44.186 91.3157 2.38735
14 46.565 88.8204 1.10289
5 46.0929 85.1938 1.81469
3 42.8003 84.0713 2.99028
14 39.8914 86.047 1.94168
7 40.1612 87.9623 -1.20323
4 37.5323 90.5007 -1.85372
8 34.4846 89.8095 -3.92303
5 32.1435 92.4775 -4.89817
15 30.7779 94.961 -2.59681
3 31.7419 94.6737 0.971626
6 32.5699 91.3891 2.48734
11 35.5766 89.5937 1.55698
12 35.3036 86.2856 -0.0837603
5 37.1173 83.3767 1.23127
4 37.9641 80.6702 -1.11773
17 37.8297 77.0352 -0.256675
6 40.8594 75.4522 1.18236
9 43.1287 77.292 3.50883
7 42.1784 78.5112 6.87371
19 44.135 77.935 9.8935
16 46.7045 80.346 10.8122
8 46.6789 83.7744 9.35313
4 45.0595 86.7012 10.9724
14 43.5241 86.3077 14.337
5 40.7003 88.4724 15.2773
16 40.91 90.5118 18.294
8 37.7584 92.3602 19.1634
9 37.8299 95.4238 21.2062
8 35.6491 95.8831 24.2176
3 36.5524 96.4095 27.7373
3 38.5811 93.7837 29.4243
9 40.5481 91.299 27.5909
3 40.3451 91.1298 23.945
11 38.0373 88.8646 22.2199
9 39.321 85.6352 21.0235
8 38.9898 84.9689 17.3907
19 41.4812 82.6291 15.8239
4 40.2618 80.207 13.2745
6 36.7506 78.9609 13.1563
13 33.9251 81.374 13.2902
11 33.8839 84.0877 10.7847
16 31.7964 83.8546 7.70177
8 30.1525 80.6609 6.69575
9 30.4219 79.0992 3.33436
7 28.1358 80.4256 0.750824
19 25.8151 78.03 -0.839252
15 25.6204 77.8269 -4.60797
14 27.7356 75.3933 -6.40431
3 29.4013 72.7027 -4.56148
9 32.0797 73.3097 -2.12027
16 34.474 76.103 -2.37808
8 33.3245 79.4025 -1.13642
17 34.1279 80.8973 2.1692
8 32.9258 84.241 3.16613
19 35.1372 86.4546 5.1562
3 33.7605 88.5394 7.92703
18 33.6693 92.2348 7.58903
12 30.8722 93.7147 5.70378
3 31.1689 97.3696 5.04688
12 28.3915 99.7132 5.18218
13 28.9749 103.39 4.78046
5 28.2164 105.728 7.50586
4 26.0392 108.738 6.9386
4 26.6132 111.305 9.44482
4 26.0667 111.074 13.1509
19 24.7593 107.946 14.5102
3 26.1366 104.585 13.6192
4 29.7311 104.085 13.2897
8 31.8001 101.483 14.7937
20 31.1868 97.8401 14.6744
5 27.6336 96.8852 13.9033
8 26.3974 93.5523 15.0507
3 25.2054 90.9226 12.7633
13 27.7682 88.4887 11.4919
7 31.0168 87.976 13.2496
18 30.7637 87.596 16.926
5 27.4994 86.2148 18.1056
3 27.1176 82.591 18.6298
22 29.3526 80.8859 20.9671
11 30.8435 83.0269 23.5262
11 28.5896 84.3647 26.1927
16 25.8251 86.62 25.0754
7 23.16 87.8009 27.4658
18 20.871 90.5498 26.4656
13 20.5546 93.7137 28.3367
22 17.986 94.1473 31.0248
13 18.3733 96.7423 33.5946
10 21.0102 99.1955 33.3403
10 23.8823 98.6953 31.0738
22 25.9822 95.6749 31.4127
7 26.3417 93.2273 28.6759
3 26.8698 89.6416 29.3331
18 29.8591 87.6973 28.2051
14 31.0115 84.3965 29.43
6 32.5064 81.8572 27.1897
14 30.3564 79.6195 25.1425
14 30.6576 75.9332 25.1906
23 29.436 105.687 2.47814
24 33.2018 101.05 2.80651
23 34.9625 100.666 8.52023
23 36.2335 106.021 10.9224
24 39.1581 105.515 16.1414
24 44.7204 103.899 14.6843
24 48.4794 104.338 19.2936
24 49.397 99.8272 23.0803
24 44.0728 97.3804 24.395
23 42.9872 93.2001 20.269
23 46.6448 93.8224 15.4771
24 50.0093 98.3802 17.3944
23 54.4589 98.6661 13.3876
24 53.0894 96.3321 7.97414
23 47.2787 97.5843 6.9673
24 43.9116 95.1685 11.2675
23 38.2635 97.1448 10.2274
23 39.1397 102.551 7.84897
24 40.9119 105.769 12.607
24 46.8886 105.188 12.4977
