Generated datfile with some information | 

         696  atoms
         694  bonds
         354  angles

          24  atom types
           3  bond types
           2  angle types


-60.9720  100.1910 xlo xhi
-22.5725  161.3440 ylo yhi
-71.9331  95.7950 zlo zhi

Masses

   1  100.00
   2  1500.00
   3   75.00
   4  115.00
   5  131.00
   6  147.00
   7  117.00
   8  131.00
   9  146.00
  10  132.00
  11  181.00
  12  149.00
  13  133.00
  14   89.00
  15  147.00
  16  119.00
  17  121.00
  18  165.00
  19  105.00
  20  204.00
  21  155.00
  22  174.00
  23  204.00
  24  247.00


PairIJ Coeffs # soft

  1   1 soft   0.00
  1   2 soft   0.00
  1   3 soft   0.00
  1   4 soft   0.15
  1   5 soft   0.19
  1   6 soft   0.00
  1   7 soft   0.17
  1   8 soft   0.19
  1   9 soft   0.00
  1  10 soft   0.00
  1  11 soft   0.17
  1  12 soft   0.13
  1  13 soft   0.00
  1  14 soft   0.06
  1  15 soft   0.00
  1  16 soft   0.00
  1  17 soft   0.08
  1  18 soft   0.19
  1  19 soft   0.00
  1  20 soft   0.19
  1  21 soft   0.00
  1  22 soft   0.00
  1  23 soft   0.08
  1  24 soft   0.00
  2   2 soft   0.00
  2   3 soft   0.00
  2   4 soft   0.00
  2   5 soft   0.00
  2   6 soft   0.00
  2   7 soft   0.00
  2   8 soft   0.00
  2   9 soft   0.00
  2  10 soft   0.00
  2  11 soft   0.00
  2  12 soft   0.00
  2  13 soft   0.00
  2  14 soft   0.00
  2  15 soft   0.00
  2  16 soft   0.00
  2  17 soft   0.00
  2  18 soft   0.00
  2  19 soft   0.00
  2  20 soft   0.00
  2  21 soft   0.00
  2  22 soft   0.00
  2  23 soft   0.00
  2  24 soft   0.00
  3   3 soft   0.00
  3   4 soft   0.15
  3   5 soft   0.19
  3   6 soft   0.00
  3   7 soft   0.17
  3   8 soft   0.19
  3   9 soft   0.00
  3  10 soft   0.00
  3  11 soft   0.17
  3  12 soft   0.13
  3  13 soft   0.00
  3  14 soft   0.06
  3  15 soft   0.00
  3  16 soft   0.00
  3  17 soft   0.08
  3  18 soft   0.19
  3  19 soft   0.00
  3  20 soft   0.19
  3  21 soft   0.00
  3  22 soft   0.00
  3  23 soft   0.08
  3  24 soft   0.00
  4   4 soft   0.30
  4   5 soft   0.34
  4   6 soft   0.00
  4   7 soft   0.32
  4   8 soft   0.34
  4   9 soft   0.00
  4  10 soft   0.00
  4  11 soft   0.31
  4  12 soft   0.28
  4  13 soft   0.00
  4  14 soft   0.21
  4  15 soft   0.00
  4  16 soft   0.00
  4  17 soft   0.23
  4  18 soft   0.34
  4  19 soft   0.00
  4  20 soft   0.34
  4  21 soft   0.15
  4  22 soft   0.00
  4  23 soft   0.23
  4  24 soft   0.00
  5   5 soft   0.38
  5   6 soft   0.00
  5   7 soft   0.36
  5   8 soft   0.38
  5   9 soft   0.00
  5  10 soft   0.00
  5  11 soft   0.36
  5  12 soft   0.32
  5  13 soft   0.00
  5  14 soft   0.25
  5  15 soft   0.00
  5  16 soft   0.00
  5  17 soft   0.27
  5  18 soft   0.38
  5  19 soft   0.00
  5  20 soft   0.38
  5  21 soft   0.19
  5  22 soft   0.00
  5  23 soft   0.27
  5  24 soft   0.00
  6   6 soft   0.00
  6   7 soft   0.12
  6   8 soft   0.14
  6   9 soft   0.00
  6  10 soft   0.00
  6  11 soft   0.12
  6  12 soft   0.09
  6  13 soft   0.00
  6  14 soft   0.01
  6  15 soft   0.00
  6  16 soft   0.00
  6  17 soft   0.03
  6  18 soft   0.14
  6  19 soft   0.00
  6  20 soft   0.14
  6  21 soft  -0.05
  6  22 soft   0.00
  6  23 soft   0.03
  6  24 soft   0.00
  7   7 soft   0.34
  7   8 soft   0.36
  7   9 soft   0.00
  7  10 soft   0.00
  7  11 soft   0.34
  7  12 soft   0.30
  7  13 soft   0.00
  7  14 soft   0.23
  7  15 soft   0.00
  7  16 soft   0.00
  7  17 soft   0.25
  7  18 soft   0.36
  7  19 soft   0.00
  7  20 soft   0.36
  7  21 soft   0.17
  7  22 soft   0.00
  7  23 soft   0.25
  7  24 soft   0.00
  8   8 soft   0.38
  8   9 soft   0.00
  8  10 soft   0.00
  8  11 soft   0.36
  8  12 soft   0.32
  8  13 soft   0.00
  8  14 soft   0.25
  8  15 soft   0.00
  8  16 soft   0.00
  8  17 soft   0.27
  8  18 soft   0.38
  8  19 soft   0.00
  8  20 soft   0.38
  8  21 soft   0.19
  8  22 soft   0.00
  8  23 soft   0.27
  8  24 soft   0.00
  9   9 soft   0.00
  9  10 soft   0.00
  9  11 soft  -0.02
  9  12 soft  -0.06
  9  13 soft   0.00
  9  14 soft  -0.13
  9  15 soft   0.00
  9  16 soft   0.00
  9  17 soft  -0.11
  9  18 soft   0.00
  9  19 soft   0.00
  9  20 soft   0.00
  9  21 soft  -0.19
  9  22 soft   0.00
  9  23 soft  -0.11
  9  24 soft   0.00
 10  10 soft   0.00
 10  11 soft   0.02
 10  12 soft  -0.02
 10  13 soft   0.00
 10  14 soft  -0.09
 10  15 soft   0.00
 10  16 soft   0.00
 10  17 soft  -0.07
 10  18 soft   0.04
 10  19 soft   0.00
 10  20 soft   0.04
 10  21 soft  -0.15
 10  22 soft   0.00
 10  23 soft  -0.07
 10  24 soft   0.00
 11  11 soft   0.33
 11  12 soft   0.30
 11  13 soft   0.00
 11  14 soft   0.23
 11  15 soft   0.00
 11  16 soft   0.00
 11  17 soft   0.25
 11  18 soft   0.36
 11  19 soft   0.00
 11  20 soft   0.36
 11  21 soft   0.17
 11  22 soft   0.00
 11  23 soft   0.25
 11  24 soft   0.00
 12  12 soft   0.27
 12  13 soft   0.00
 12  14 soft   0.20
 12  15 soft   0.00
 12  16 soft   0.00
 12  17 soft   0.22
 12  18 soft   0.32
 12  19 soft   0.00
 12  20 soft   0.32
 12  21 soft   0.14
 12  22 soft   0.00
 12  23 soft   0.22
 12  24 soft   0.00
 13  13 soft   0.00
 13  14 soft   0.02
 13  15 soft   0.00
 13  16 soft   0.00
 13  17 soft   0.04
 13  18 soft   0.14
 13  19 soft   0.00
 13  20 soft   0.14
 13  21 soft  -0.04
 13  22 soft   0.00
 13  23 soft   0.04
 13  24 soft   0.00
 14  14 soft   0.12
 14  15 soft   0.00
 14  16 soft   0.00
 14  17 soft   0.14
 14  18 soft   0.25
 14  19 soft   0.00
 14  20 soft   0.25
 14  21 soft   0.06
 14  22 soft   0.00
 14  23 soft   0.14
 14  24 soft   0.00
 15  15 soft   0.00
 15  16 soft   0.00
 15  17 soft  -0.01
 15  18 soft   0.09
 15  19 soft   0.00
 15  20 soft   0.09
 15  21 soft  -0.09
 15  22 soft   0.00
 15  23 soft  -0.01
 15  24 soft   0.00
 16  16 soft   0.00
 16  17 soft   0.02
 16  18 soft   0.13
 16  19 soft   0.00
 16  20 soft   0.13
 16  21 soft  -0.06
 16  22 soft   0.00
 16  23 soft   0.02
 16  24 soft   0.00
 17  17 soft   0.16
 17  18 soft   0.27
 17  19 soft   0.00
 17  20 soft   0.27
 17  21 soft   0.08
 17  22 soft   0.00
 17  23 soft   0.16
 17  24 soft   0.00
 18  18 soft   0.38
 18  19 soft   0.00
 18  20 soft   0.38
 18  21 soft   0.19
 18  22 soft   0.00
 18  23 soft   0.27
 18  24 soft   0.00
 19  19 soft   0.00
 19  20 soft   0.08
 19  21 soft  -0.11
 19  22 soft   0.00
 19  23 soft  -0.03
 19  24 soft   0.00
 20  20 soft   0.38
 20  21 soft   0.19
 20  22 soft   0.00
 20  23 soft   0.27
 20  24 soft   0.00
 21  21 soft   0.00
 21  22 soft   0.00
 21  23 soft   0.08
 21  24 soft   0.00
 22  22 soft   0.00
 22  23 soft  -0.11
 22  24 soft   0.00
 23  23 soft   0.16
 23  24 soft   0.00
 24  24 soft   0.00


Bond Coeffs

  1   10.00   0.00
  2  337.00   3.70
  3  310.00   6.00

Angle Coeffs

  1   50.00 121.00
  2   40.00 109.50

Atoms

      1   3    10.857    80.938    35.206   1  0.00
      2   4    13.004    82.044    32.231   1  0.00
      3   5    11.093    81.447    29.026   1  0.00
      4   4    13.154    79.447    26.394   1  0.00
      5   6    12.654    80.257    22.687   1 -1.00
      6   7    14.262    77.728    20.389   1  0.00
      7   8    15.724    79.368    17.293   1  0.00
      8   9    16.106    77.849    13.810   1  1.00
      9  10    19.354    78.498    11.965   1  0.00
     10  11    19.308    79.091     8.222   1  0.00
     11  12    22.895    78.921     6.857   1  0.00
     12  13    24.464    80.788     9.849   1 -1.00
     13  14    22.960    83.849     8.241   1  0.00
     14  15    19.297    83.949     9.472   1  0.00
     15  11    18.202    82.918    13.002   1  0.00
     16  11    14.439    83.105    13.654   1  0.00
     17   3    11.925    81.647    16.126   1  0.00
     18   6     8.163    81.171    16.405   1 -1.00
     19   5     5.696    83.526    18.128   1  0.00
     20   3     1.909    84.013    17.956   1  0.00
     21   5    -0.241    87.098    17.237   1  0.00
     22   3    -3.923    86.833    18.194   1  0.00
     23  16    -6.353    84.671    20.062   1  0.00
     24   4    -6.185    81.968    19.103   1  0.00
     25   4    -2.446    82.357    18.197   1  0.00
     26  15    -1.637    82.683    14.506   1  0.00
     27  17     2.015    81.453    14.322   1  0.00
     28  18     4.780    83.449    12.606   1  0.00
     29  16     8.581    83.177    12.547   1  0.00
     30   7    10.532    86.305    13.423   1  0.00
     31   7    14.117    87.252    13.954   1  0.00
     32  18    14.657    88.614    17.401   1  0.00
     33  13    16.488    91.609    16.326   1 -1.00
     34  16    18.474    93.668    18.885   1  0.00
     35   3    19.142    96.246    16.124   1  0.00
     36  19    15.563    97.610    15.855   1  0.00
     37  19    12.548    98.027    18.094   1  0.00
     38  10     9.403    97.428    15.992   1  0.00
     39   8     7.440    94.215    15.552   1  0.00
     40  20     5.784    93.470    12.262   1  0.00
     41   7     4.460    90.518    10.332   1  0.00
     42   4     2.822    90.457     6.858   1  0.00
     43  19    -0.795    91.517     6.655   1  0.00
     44   5    -3.306    89.305     4.786   1  0.00
     45  21    -4.276    92.682     3.277   1  0.00
     46  17    -0.760    93.108     1.873   1  0.00
     47   9    -0.829    94.633    -1.625   1  1.00
     48   8    -0.259    92.566    -4.799   1  0.00
     49   8     3.031    94.496    -5.242   1  0.00
     50  13     4.294    92.833    -2.077   1 -1.00
     51   5     5.749    89.703    -3.584   1  0.00
     52  14     7.366    88.766    -0.283   1  0.00
     53  17     3.906    88.458     1.250   1  0.00
     54  20     2.758    85.826    -1.235   1  0.00
     55   5     5.303    83.371     0.055   1  0.00
     56  21     5.048    84.037     3.803   1  0.00
     57  21     2.398    83.743     6.549   1  0.00
     58   9     0.035    86.676     6.638   1  1.00
     59  11    -1.911    87.823     9.703   1  0.00
     60  10    -5.721    87.928     9.518   1  0.00
     61  19    -7.293    90.239    12.065   1  0.00
     62  13   -10.781    88.887    11.644   1 -1.00
     63   9    -9.676    85.528    12.992   1  1.00
     64  19    -8.611    86.996    16.374   1  0.00
     65  19   -10.972    87.798    19.195   1  0.00
     66  16    -8.474    90.034    21.013   1  0.00
     67  11    -7.605    92.294    18.117   1  0.00
     68   7    -8.040    96.056    18.690   1  0.00
     69   9    -7.592    98.162    15.653   1  1.00
     70  10    -5.242   101.029    15.412   1  0.00
     71   3    -4.924   101.644    11.630   1  0.00
     72  16    -2.112   104.366    12.058   1  0.00
     73  19     0.382   103.989     9.136   1  0.00
     74  18     4.028   103.202     9.701   1  0.00
     75  13     7.062   103.100     7.400   1 -1.00
     76   5    10.299   101.293     8.529   1  0.00
     77  21    13.500   101.458     6.453   1  0.00
     78  11    16.217    99.065     7.525   1  0.00
     79   3    19.718    99.459     6.066   1  0.00
     80  19    18.691    96.813     3.479   1  0.00
     81   3    14.891    96.422     3.448   1  0.00
     82  19    11.979    98.844     3.518   1  0.00
     83   8     8.370    98.153     4.368   1  0.00
     84  19     5.226    99.903     5.391   1  0.00
     85   3     1.675    99.067     6.513   1  0.00
     86  11    -0.600   100.107     9.369   1  0.00
     87   8    -0.397    99.466    13.103   1  0.00
     88  19    -2.627    97.111    15.086   1  0.00
     89  15    -3.010    95.675    18.567   1  0.00
     90  13    -3.369    92.091    19.816   1 -1.00
     91  16    -1.721    89.579    22.166   1  0.00
     92   7     1.747    88.253    21.331   1  0.00
     93  19     2.640    84.788    22.643   1  0.00
     94   7     6.249    83.481    22.901   1  0.00
     95   4     6.568    80.586    21.879   1  0.00
     96  17     3.240    80.036    19.989   1  0.00
     97  15     1.932    79.508    23.586   1  0.00
     98   3     6.387    78.060    29.918   1  0.00
     99   3     5.204    80.586    27.311   1  0.00
    100   7     4.390    84.264    27.922   1  0.00
    101   9     1.402    86.160    26.883   1  1.00
    102   7     2.333    89.805    26.241   1  0.00
    103   6    -1.104    91.487    26.042   1 -1.00
    104  22    -2.077    94.660    24.163   1  1.00
    105  15     0.950    94.807    21.907   1  0.00
    106   7     0.936    97.228    19.024   1  0.00
    107  18     2.712    95.817    15.997   1  0.00
    108   3     2.549    96.619    12.266   1  0.00
    109   6     0.739    94.758     9.546   1 -1.00
    110  14     3.029    95.053     6.545   1  0.00
    111  16     1.332    95.727     3.248   1  0.00
    112   9     4.219    96.825     0.955   1  1.00
    113  15     7.749    95.391     1.308   1  0.00
    114   4    10.048    96.708    -1.456   1  0.00
    115   3    12.812    94.768    -3.205   1  0.00
    116   5    14.412    91.331    -3.100   1  0.00
    117  16    15.362    91.465     0.544   1  0.00
    118  18    12.310    89.755     2.083   1  0.00
    119   5    11.564    87.425    -0.929   1  0.00
    120  14    14.741    85.664     0.011   1  0.00
    121  14    14.189    85.680     3.827   1  0.00
    122   9    12.965    82.397     5.496   1  1.00
    123  18    11.311    84.354     8.297   1  0.00
    124  13     7.943    86.131     8.231   1 -1.00
    125   3     8.698    89.251    10.299   1  0.00
    126   5    10.962    91.023    12.797   1  0.00
    127   8    10.595    91.465    16.530   1  0.00
    128   3    12.915    94.263    17.460   1  0.00
    129  12    14.609    94.181    20.813   1  0.00
    130  14    16.529    97.429    21.004   1  0.00
    131  11    15.577   100.345    23.293   1  0.00
    132   4    12.457   102.524    22.725   1  0.00
    133  22    14.365   105.589    21.322   1  1.00
    134   5    14.707   104.009    17.880   1  0.00
    135  19    11.148   102.758    17.696   1  0.00
    136   7     9.075   103.874    14.747   1  0.00
    137  10     5.974   105.742    15.931   1  0.00
    138  10     7.050   105.444    19.566   1  0.00
    139   7     5.319   102.073    19.658   1  0.00
    140   8     6.375   100.489    23.004   1  0.00
    141   4     8.633    97.456    22.121   1  0.00
    142   7     7.630    93.908    23.054   1  0.00
    143  18    10.213    93.483    25.831   1  0.00
    144  13     9.242    96.922    27.217   1 -1.00
    145  10     5.685    95.711    27.324   1  0.00
    146   8     6.908    92.478    29.078   1  0.00
    147  12     8.796    94.454    31.696   1  0.00
    148  15     5.784    96.648    32.290   1  0.00
    149  15     3.388    93.727    32.702   1  0.00
    150   9     5.977    92.173    35.047   1  1.00
    151   8     6.044    88.966    33.215   1  0.00
    152   7     9.617    87.857    34.187   1  0.00
    153  13    11.776    87.972    37.302   1 -1.00
    154  15    14.901    89.523    35.750   1  0.00
    155  10    14.511    91.973    32.831   1  0.00
    156   5    17.145    90.355    30.703   1  0.00
    157  18    17.301    87.974    27.755   1  0.00
    158  19    20.186    85.909    26.427   1  0.00
    159  18    21.205    84.626    23.012   1  0.00
    160  11    22.851    81.368    22.193   1  0.00
    161   8    23.257    80.996    18.369   1  0.00
    162  19    24.545    77.748    16.823   1  0.00
    163  22    27.273    78.055    14.310   1  1.00
    164  13    26.659    74.626    12.704   1 -1.00
    165   4    23.539    74.965    10.448   1  0.00
    166  13    22.747    71.262    10.710   1 -1.00
    167  14    22.495    71.445    14.494   1  0.00
    168  15    19.319    71.010    16.519   1  0.00
    169   4    18.551    73.447    18.218   1  0.00
    170   3    19.700    76.289    15.913   1  0.00
    171   3    20.135    78.570    18.920   1  0.00
    172   6    18.149    79.625    21.971   1 -1.00
    173   8    16.779    83.028    23.080   1  0.00
    174  12    16.155    82.867    26.829   1  0.00
    175   8    13.698    85.585    28.119   1  0.00
    176   3    14.112    86.774    31.687   1  0.00
    177   3    17.179    84.686    32.431   1  0.00
    178  16    20.400    83.028    31.346   1  0.00
    179  13    20.942    79.406    30.188   1 -1.00
    180  19    24.139    78.082    31.677   1  0.00
    181   9    24.072    74.976    29.553   1  1.00
    182  11    25.349    77.173    26.688   1  0.00
    183  11    28.384    79.060    27.935   1  0.00
    184   9    31.628    78.485    29.857   1  1.00
    185   3    32.975    80.445    32.807   1  0.00
    186  19    31.423    83.805    33.737   1  0.00
    187   8    29.703    86.722    32.169   1  0.00
    188  19    31.800    89.877    31.821   1  0.00
    189  11    29.628    92.940    31.304   1  0.00
    190   8    29.980    96.247    29.474   1  0.00
    191  10    27.731    99.274    29.971   1  0.00
    192   7    25.493   100.658    27.204   1  0.00
    193  16    26.887   104.005    26.058   1  0.00
    194  22    23.920   105.373    23.997   1  1.00
    195   9    20.645   103.762    25.084   1  1.00
    196  14    18.984   103.274    21.650   1  0.00
    197  11    20.685   100.265    20.044   1  0.00
    198  20    22.708    98.129    22.396   1  0.00
    199  15    25.738   100.326    21.991   1  0.00
    200   7    28.965    99.386    23.664   1  0.00
    201  21    32.467   100.910    23.359   1  0.00
    202   8    35.054    98.874    21.487   1  0.00
    203  13    38.640    99.594    22.555   1 -1.00
    204  15    40.461    98.366    19.412   1  0.00
    205   7    40.297    95.538    16.817   1  0.00
    206   6    43.668    93.801    16.484   1 -1.00
    207   7    44.440    91.244    13.790   1  0.00
    208  14    47.327    89.220    15.065   1  0.00
    209  19    49.584    89.759    12.013   1  0.00
    210   3    50.191    93.217    13.460   1  0.00
    211   8    47.369    95.429    12.137   1  0.00
    212  16    45.333    97.273    14.733   1  0.00
    213   8    42.135    98.953    13.572   1  0.00
    214  17    39.957   101.214    15.765   1  0.00
    215   9    43.071   102.215    17.726   1  1.00
    216   6    41.813   105.182    19.756   1 -1.00
    217   3    38.659   103.177    20.468   1  0.00
    218  17    35.284   103.375    18.769   1  0.00
    219   6    31.552   102.690    19.199   1 -1.00
    220  14    29.992    99.352    18.375   1  0.00
    221   5    26.440    98.015    18.458   1  0.00
    222   7    25.539    94.396    19.285   1  0.00
    223  13    23.006    93.332    16.668   1 -1.00
    224  16    21.540    89.822    16.471   1  0.00
    225   3    19.855    90.780    13.184   1  0.00
    226  16    23.210    91.271    11.254   1  0.00
    227  19    24.959    88.017    10.170   1  0.00
    228   8    28.363    89.430     9.673   1  0.00
    229  12    30.686    91.699    11.551   1  0.00
    230   7    30.632    95.112     9.827   1  0.00
    231   3    32.986    98.021    10.109   1  0.00
    232   4    33.967   101.177     8.129   1  0.00
    233   7    34.909   100.591     4.483   1  0.00
    234  13    38.518   101.722     4.893   1 -1.00
    235   6    39.418    99.732     7.963   1 -1.00
    236   7    37.712    96.628     6.690   1  0.00
    237  22    39.605    96.754     3.370   1  1.00
    238   6    42.879    96.945     5.343   1 -1.00
    239   8    41.791    94.048     7.527   1  0.00
    240  15    40.867    91.993     4.506   1  0.00
    241   9    44.164    92.644     2.776   1  1.00
    242  14    46.042    91.778     6.004   1  0.00
    243   5    44.203    88.392     5.949   1  0.00
    244   3    44.368    87.956     2.153   1  0.00
    245  14    40.652    87.751     1.290   1  0.00
    246   7    39.588    88.962    -2.168   1  0.00
    247   4    36.653    91.398    -2.971   1  0.00
    248   8    33.397    89.772    -3.929   1  0.00
    249   5    31.173    92.820    -4.391   1  0.00
    250  15    29.927    95.672    -2.190   1  0.00
    251   3    32.027    95.348     0.907   1  0.00
    252   6    31.854    91.537     1.085   1 -1.00
    253  11    35.012    89.498     0.569   1  0.00
    254  12    35.653    85.813    -0.101   1  0.00
    255   5    38.502    83.548     1.012   1  0.00
    256   4    39.140    79.882    -0.196   1  0.00
    257  17    37.832    77.584     2.521   1  0.00
    258   6    41.111    75.716     1.985   1 -1.00
    259   9    42.985    78.782     3.022   1  1.00
    260   7    41.101    79.304     6.342   1  0.00
    261  19    43.643    77.469     8.621   1  0.00
    262  16    46.495    79.784     7.468   1  0.00
    263   8    44.577    82.857     8.504   1  0.00
    264   4    45.195    85.152    11.519   1  0.00
    265  14    42.927    85.280    14.612   1  0.00
    266   5    41.354    88.694    15.206   1  0.00
    267  16    40.806    89.953    18.702   1  0.00
    268   8    38.255    92.649    19.567   1  0.00
    269   9    39.128    94.250    22.896   1  1.00
    270   8    36.003    95.066    24.813   1  0.00
    271   3    36.204    96.635    28.267   1  0.00
    272   3    39.825    95.735    28.729   1  0.00
    273   9    39.362    92.052    27.775   1  1.00
    274   3    40.313    90.580    24.393   1  0.00
    275  11    37.653    88.365    22.725   1  0.00
    276   9    39.312    86.152    20.125   1  1.00
    277   8    37.783    85.078    16.765   1  0.00
    278  19    39.776    82.375    15.123   1  0.00
    279   4    39.595    81.925    11.318   1  0.00
    280   6    36.828    79.331    11.670   1 -1.00
    281  13    34.783    81.727    13.798   1 -1.00
    282  11    34.894    84.591    11.340   1  0.00
    283  16    34.391    82.815     7.925   1  0.00
    284   8    31.109    81.226     6.620   1  0.00
    285   9    30.871    78.342     4.161   1  1.00
    286   7    28.371    79.077     1.355   1  0.00
    287  19    27.084    77.067    -1.704   1  0.00
    288  15    25.154    77.192    -5.109   1  0.00
    289  14    27.658    75.356    -7.284   1  0.00
    290   3    29.224    75.050    -3.799   1  0.00
    291   9    31.643    74.696    -0.929   1  1.00
    292  16    35.346    75.974    -1.200   1  0.00
    293   8    33.622    79.350    -1.113   1  0.00
    294  17    33.920    80.859     2.275   1  0.00
    295   8    32.848    84.366     2.905   1  0.00
    296  19    35.168    86.511     5.058   1  0.00
    297   3    32.885    87.317     8.000   1  0.00
    298  18    33.653    91.097     7.993   1  0.00
    299  12    31.722    93.328     5.708   1  0.00
    300   3    32.857    96.911     5.005   1  0.00
    301  12    29.920    99.371     5.243   1  0.00
    302  13    30.017   103.027     6.319   1 -1.00
    303   5    27.259   104.068     8.638   1  0.00
    304   4    26.813   107.837     8.338   1  0.00
    305   4    26.743   110.494    11.072   1  0.00
    306   4    24.931   111.344    13.177   1  0.00
    307  19    24.590   107.758    14.497   1  0.00
    308   3    27.659   106.428    12.850   1  0.00
    309   4    30.396   105.530    12.391   1  0.00
    310   8    29.710   102.214    14.155   1  0.00
    311  20    31.125    98.711    14.061   1  0.00
    312   5    28.347    96.099    14.266   1  0.00
    313   8    29.005    92.848    16.201   1  0.00
    314   3    26.692    90.492    14.416   1  0.00
    315  13    25.960    86.793    14.581   1 -1.00
    316   7    29.627    86.005    13.789   1  0.00
    317  18    30.540    87.396    17.259   1  0.00
    318   5    27.380    86.294    19.130   1  0.00
    319   3    28.072    82.779    17.775   1  0.00
    320  22    31.421    82.502    19.593   1  1.00
    321  11    30.413    84.535    22.644   1  0.00
    322  11    27.048    83.801    24.369   1  0.00
    323  16    25.390    87.264    24.850   1  0.00
    324   7    23.253    88.666    27.653   1  0.00
    325  18    21.282    91.886    27.144   1  0.00
    326  13    20.417    93.455    30.516   1 -1.00
    327  22    17.493    95.955    30.551   1  1.00
    328  13    17.613    96.251    34.330   1 -1.00
    329  10    21.113    97.708    34.354   1  0.00
    330  10    21.690    98.714    30.693   1  0.00
    331  22    24.689    96.561    30.044   1  1.00
    332   7    25.642    93.702    27.779   1  0.00
    333   3    27.418    90.553    29.050   1  0.00
    334  18    29.463    87.952    27.155   1  0.00
    335  14    30.866    84.504    27.988   1  0.00
    336   6    32.445    81.783    25.809   1 -1.00
    337  14    29.581    79.814    24.207   1  0.00
    338  14    29.777    76.159    24.979   1  0.00
    339   2    10.857    80.938    35.206   1  0.00
    340   2    13.004    82.044    32.231   1  0.00
    341   2    11.093    81.447    29.026   1  0.00
    342   2    13.154    79.447    26.394   1  0.00
    343   2    12.654    80.257    22.687   1  0.00
    344   2    14.262    77.728    20.389   1  0.00
    345   2    15.724    79.368    17.293   1  0.00
    346   2    16.106    77.849    13.810   1  0.00
    347   2    19.354    78.498    11.965   1  0.00
    348   2    19.308    79.091     8.222   1  0.00
    349   2    22.895    78.921     6.857   1  0.00
    350   2    24.464    80.788     9.849   1  0.00
    351   2    22.960    83.849     8.241   1  0.00
    352   2    19.297    83.949     9.472   1  0.00
    353   2    18.202    82.918    13.002   1  0.00
    354   2    14.439    83.105    13.654   1  0.00
    355   2    11.925    81.647    16.126   1  0.00
    356   2     8.163    81.171    16.405   1  0.00
    357   2     5.696    83.526    18.128   1  0.00
    358   2     1.909    84.013    17.956   1  0.00
    359   2    -0.241    87.098    17.237   1  0.00
    360   2    -3.923    86.833    18.194   1  0.00
    361   2    -6.353    84.671    20.062   1  0.00
    362   2    -6.185    81.968    19.103   1  0.00
    363   2    -2.446    82.357    18.197   1  0.00
    364   2    -1.637    82.683    14.506   1  0.00
    365   2     2.015    81.453    14.322   1  0.00
    366   2     4.780    83.449    12.606   1  0.00
    367   2     8.581    83.177    12.547   1  0.00
    368   2    10.532    86.305    13.423   1  0.00
    369   2    14.117    87.252    13.954   1  0.00
    370   2    14.657    88.614    17.401   1  0.00
    371   2    16.488    91.609    16.326   1  0.00
    372   2    18.474    93.668    18.885   1  0.00
    373   2    19.142    96.246    16.124   1  0.00
    374   2    15.563    97.610    15.855   1  0.00
    375   2    12.548    98.027    18.094   1  0.00
    376   2     9.403    97.428    15.992   1  0.00
    377   2     7.440    94.215    15.552   1  0.00
    378   2     5.784    93.470    12.262   1  0.00
    379   2     4.460    90.518    10.332   1  0.00
    380   2     2.822    90.457     6.858   1  0.00
    381   2    -0.795    91.517     6.655   1  0.00
    382   2    -3.306    89.305     4.786   1  0.00
    383   2    -4.276    92.682     3.277   1  0.00
    384   2    -0.760    93.108     1.873   1  0.00
    385   2    -0.829    94.633    -1.625   1  0.00
    386   2    -0.259    92.566    -4.799   1  0.00
    387   2     3.031    94.496    -5.242   1  0.00
    388   2     4.294    92.833    -2.077   1  0.00
    389   2     5.749    89.703    -3.584   1  0.00
    390   2     7.366    88.766    -0.283   1  0.00
    391   2     3.906    88.458     1.250   1  0.00
    392   2     2.758    85.826    -1.235   1  0.00
    393   2     5.303    83.371     0.055   1  0.00
    394   2     5.048    84.037     3.803   1  0.00
    395   2     2.398    83.743     6.549   1  0.00
    396   2     0.035    86.676     6.638   1  0.00
    397   2    -1.911    87.823     9.703   1  0.00
    398   2    -5.721    87.928     9.518   1  0.00
    399   2    -7.293    90.239    12.065   1  0.00
    400   2   -10.781    88.887    11.644   1  0.00
    401   2    -9.676    85.528    12.992   1  0.00
    402   2    -8.611    86.996    16.374   1  0.00
    403   2   -10.972    87.798    19.195   1  0.00
    404   2    -8.474    90.034    21.013   1  0.00
    405   2    -7.605    92.294    18.117   1  0.00
    406   2    -8.040    96.056    18.690   1  0.00
    407   2    -7.592    98.162    15.653   1  0.00
    408   2    -5.242   101.029    15.412   1  0.00
    409   2    -4.924   101.644    11.630   1  0.00
    410   2    -2.112   104.366    12.058   1  0.00
    411   2     0.382   103.989     9.136   1  0.00
    412   2     4.028   103.202     9.701   1  0.00
    413   2     7.062   103.100     7.400   1  0.00
    414   2    10.299   101.293     8.529   1  0.00
    415   2    13.500   101.458     6.453   1  0.00
    416   2    16.217    99.065     7.525   1  0.00
    417   2    19.718    99.459     6.066   1  0.00
    418   2    18.691    96.813     3.479   1  0.00
    419   2    14.891    96.422     3.448   1  0.00
    420   2    11.979    98.844     3.518   1  0.00
    421   2     8.370    98.153     4.368   1  0.00
    422   2     5.226    99.903     5.391   1  0.00
    423   2     1.675    99.067     6.513   1  0.00
    424   2    -0.600   100.107     9.369   1  0.00
    425   2    -0.397    99.466    13.103   1  0.00
    426   2    -2.627    97.111    15.086   1  0.00
    427   2    -3.010    95.675    18.567   1  0.00
    428   2    -3.369    92.091    19.816   1  0.00
    429   2    -1.721    89.579    22.166   1  0.00
    430   2     1.747    88.253    21.331   1  0.00
    431   2     2.640    84.788    22.643   1  0.00
    432   2     6.249    83.481    22.901   1  0.00
    433   2     6.568    80.586    21.879   1  0.00
    434   2     3.240    80.036    19.989   1  0.00
    435   2     1.932    79.508    23.586   1  0.00
    436   2     6.387    78.060    29.918   1  0.00
    437   2     5.204    80.586    27.311   1  0.00
    438   2     4.390    84.264    27.922   1  0.00
    439   2     1.402    86.160    26.883   1  0.00
    440   2     2.333    89.805    26.241   1  0.00
    441   2    -1.104    91.487    26.042   1  0.00
    442   2    -2.077    94.660    24.163   1  0.00
    443   2     0.950    94.807    21.907   1  0.00
    444   2     0.936    97.228    19.024   1  0.00
    445   2     2.712    95.817    15.997   1  0.00
    446   2     2.549    96.619    12.266   1  0.00
    447   2     0.739    94.758     9.546   1  0.00