660
Atoms. Timestep: 200
3 12.36 79.7905 32.2211
4 11.3604 80.8981 28.8632
3 12.0829 78.6815 26.0281
5 11.7368 79.7418 22.5016
6 13.9804 78.3205 19.9387
7 15.7462 80.191 17.276
8 15.9815 78.3117 14.1604
9 19.0801 77.4692 12.2895
10 19.0143 77.9841 8.64105
11 22.4071 78.7205 7.24502
12 24.8183 80.9533 8.90752
13 23.2255 83.538 11.0082
14 19.5405 83.9208 10.2178
10 17.0759 83.6172 12.9133
10 13.8598 81.6665 13.2235
5 7.8555 81.7638 15.9665
4 5.62712 83.6796 18.224
4 0.337596 87.3754 17.883
15 -5.69137 85.5607 19.7073
3 -5.06472 81.9683 19.6191
3 -3.58405 80.56 16.574
14 -1.19055 82.211 14.3287
16 2.49831 81.9884 14.803
17 4.64511 83.9015 12.4544
15 8.23452 83.0352 12.1512
6 10.5892 85.7014 13.0754
6 13.9934 85.589 14.6056
17 15.3723 88.0908 16.9546
12 17.2817 91.0661 15.8632
15 18.2319 93.6748 18.3293
18 15.5793 99.1581 16.4716
18 12.1678 98.3816 17.7571
9 9.2792 97.8295 15.5717
7 7.75567 94.4293 15.6421
19 5.33226 93.2823 12.9875
6 6.21434 91.133 10.0992
3 3.44304 89.6985 8.11815
18 0.186205 91.4812 8.35199
4 -2.56269 90.5309 6.02762
20 -3.16246 91.7221 2.54982
16 -0.618969 93.5523 0.674298
8 -1.6018 94.7083 -2.6797
7 -0.383251 92.9133 -5.59848
7 3.21361 92.1006 -5.94364
12 5.91385 94.1647 -4.53123
4 8.26862 92.3309 -2.37684
13 6.83919 89.6069 -0.28299
16 3.23573 88.9869 -0.119351
19 1.78619 85.6359 -0.856291
4 3.03586 82.6248 0.848653
20 4.91894 82.9752 3.98649
20 3.02969 84.2973 6.85077
8 0.549851 86.9479 6.87089
10 -2.02288 87.196 9.51301
9 -5.45542 88.2433 8.61462
18 -7.26233 90.5815 10.8034
12 -10.5523 89.3411 11.975
8 -10.9107 86.2431 13.8601
18 -8.49607 85.7102 16.6615
18 -9.38871 87.1341 19.968
15 -9.39207 90.7197 20.9755
10 -7.61233 93.163 18.8563
6 -8.95341 96.6522 18.4941
8 -8.2633 98.6611 15.5381
9 -5.90652 101.421 15.1905
15 -2.22902 104.639 10.7207
18 0.595244 103.857 8.48517
17 3.96199 102.868 9.63963
12 6.99254 102.771 7.53959
4 10.4547 102.647 8.77886
20 13.3455 102.214 6.51985
10 16.6717 101.271 7.76378
18 17.6843 96.7131 3.31227
18 11.4549 98.7055 3.73713
7 8.53032 97.722 5.7596
18 5.38649 99.6447 5.60692
10 0.354404 99.7928 9.88628
7 0.0447538 97.9886 13.1229
18 -3.19499 97.2841 14.7553
14 -3.50578 95.2954 17.8829
12 -2.18547 91.8894 18.2019
15 -1.4224 90.5019 21.5643
6 1.84403 88.7058 22.0402
18 2.13246 85.2943 23.4508
6 5.45913 83.6738 23.2558
3 6.30708 80.8811 20.8646
16 4.68121 77.5134 21.1082
14 3.61176 76.2863 24.4486
6 4.9585 84.7308 28.3027
8 1.57542 86.1616 27.7541
6 1.16123 89.4679 26.1838
5 -1.95073 91.4072 25.8393
21 -2.34585 94.242 23.5114
14 0.736665 95.8164 22.1733
6 0.716457 97.5378 18.8511
17 2.31671 95.9449 15.948
5 1.31597 94.7842 9.62654
13 3.33386 94.8432 6.63488
15 1.97545 95.8503 3.4058
8 4.50009 97.5671 1.37627
14 7.54707 95.7041 0.330478
3 9.85524 97.1932 -2.08233
4 14.2048 92.6334 -2.56747
15 13.732 91.6157 0.940546
17 11.5267 88.7225 1.94078
4 11.8182 85.5748 -0.0530667
13 14.7357 83.4038 0.251834
13 15.3853 82.284 3.65746
8 12.3939 81.4765 5.7372
17 11.3587 83.775 8.4634
12 8.81053 86.4818 8.23116
4 11.0502 90.6231 12.677
7 10.55 91.6292 16.2062
11 14.6113 94.1283 20.329
13 16.9259 96.6475 21.6505
10 15.7767 99.2072 24.083
3 12.7171 101.152 23.3335
21 12.9573 104.265 21.3485
4 14.0126 104.468 17.8481
18 12.2328 102.799 15.0775
6 9.24136 104.365 13.5882
9 6.721 105.833 15.8813
9 5.63412 104.665 19.1782
6 4.00589 101.326 19.6074
7 5.94765 98.6852 21.2961
3 7.7432 96.0173 19.4384
6 10.386 94.4147 21.4061
17 11.452 96.1393 24.4961
12 8.72307 97.7576 26.3887
9 5.96011 95.6272 27.6664
7 6.76131 92.4528 29.3987
11 8.53862 92.7586 32.6824
14 7.35151 95.0089 35.3814
14 4.17688 93.9221 36.9269
8 3.2852 90.4705 35.994
7 5.195 89.28 33.0455
6 8.37971 87.3895 33.554
12 10.6104 88.1754 36.4146
14 13.4546 90.4392 35.7347
9 15.1078 90.8764 32.4444
4 18.2576 89.4399 31.0492
17 18.6512 88.4265 27.5116
18 20.0475 85.1889 26.326
17 20.8904 84.7008 22.732
10 23.0655 81.9309 21.5958
7 24.4583 81.5901 18.1637
18 24.9767 78.4025 16.3142
21 27.0352 78.5425 13.3019
12 26.8403 75.6783 10.9879
3 23.5377 74.5955 9.64899
12 22.0587 71.5704 11.1133
13 22.7433 70.0285 14.4279
14 20.1778 70.0583 17.1235
3 18.9721 73.4325 18.1453
5 18.4184 79.6833 21.8517
7 17.0464 82.6534 23.524
11 14.8779 82.5026 26.5046
7 13.8699 85.7359 28.1
15 20.1091 83.7871 31.5366
12 19.8964 80.1892 30.6823
18 22.3144 77.5269 31.5406
8 24.1614 76.18 28.5881
10 26.2397 78.4079 26.5437
10 28.7135 80.5425 28.1499
8 30.4585 79.5508 31.2117
18 32.3332 84.6955 33.9138
7 29.7026 87.0804 32.8955
18 31.0538 90.3568 31.7771
10 29.4266 93.5966 32.4186
7 30.2796 96.0657 29.8031
9 29.1503 99.5614 29.6608
6 26.7073 100.615 27.0493
15 26.7581 103.899 25.2619
21 23.8905 106.218 24.5513
8 20.4263 104.815 24.813
13 19.1451 103.476 21.5885
10 20.0318 100.033 20.5327
19 23.3305 98.6145 21.3534
14 25.8025 100.766 23.0766
6 29.0999 99.4434 24.0627
20 32.3621 100.986 23.33
7 34.9661 99.35 21.3935
12 38.4346 99.5322 22.7031
14 41.2574 99.1044 20.3771
6 41.3681 96.2341 18.1362
5 43.7522 93.302 18.2167
6 44.6942 91.5213 15.1316
13 47.3542 88.9793 14.8925
18 50.1129 89.9446 12.6342
7 47.8703 95.6909 11.6882
15 45.2812 96.7658 14.0625
7 41.9142 97.882 12.9299
16 40.274 99.9962 15.474
8 42.0125 102.977 16.7832
5 41.3243 103.868 20.3136
16 35.265 103.093 18.811
5 31.8119 102.591 19.8637
13 30.512 99.2477 18.8432
4 26.9994 98.5753 17.8848
6 25.4021 95.33 18.7423
12 22.4785 94.6837 16.5613
15 21.625 91.0455 16.2981
15 22.4278 91.0177 9.83378
18 24.7745 89.3385 7.52178
7 28.391 90.0588 7.3554
11 30.2689 92.2068 9.67301
6 29.3839 95.8096 9.90979
3 30.8417 101.667 7.2214
6 33.4512 104.25 7.36829
12 36.704 103.325 8.87638
5 37.4742 99.7445 8.34486
6 38.737 98.4864 5.07833
21 42.3562 98.5026 4.22439
5 44.8376 97.6092 6.80316
7 44.6934 94.3079 8.46681
14 42.7812 91.7705 6.63546
8 43.319 91.1901 3.04435
13 46.3555 89.4647 1.94619
4 46.3933 85.7254 2.1592
13 40.1702 86.5317 2.23024
6 39.1477 87.2509 -1.19436
3 36.9325 90.1724 -1.93208
7 33.7471 89.5458 -3.69508
4 31.8164 92.4317 -4.89922
14 30.9801 95.1114 -2.54976
5 31.8826 91.3522 2.39324
10 34.9105 89.2666 2.30306
11 35.4048 86.6972 -0.309318
4 37.6336 83.8482 0.681129
3 37.6629 80.5632 -1.03049
16 37.9783 77.2071 0.551696
5 41.3501 75.9944 1.52084
8 43.2585 77.9659 4.05
6 41.7683 77.9742 7.437
18 43.9443 77.9115 10.4004
15 47.0005 80.0563 10.6515
7 47.0422 83.4967 9.34922
3 45.4944 86.4645 10.8224
13 42.6868 85.9402 13.2123
4 40.6895 88.771 14.3754
15 40.7423 89.8594 17.9672
7 37.8715 91.6328 19.489
8 38.4939 94.5087 21.7645
7 35.9719 95.8209 24.0631
8 40.154 91.1751 27.8481
10 38.6166 88.3541 22.3126
8 39.9728 85.2719 20.7317
7 40.4474 84.863 17.1168
18 42.3406 82.0829 15.5951
3 40.4681 79.5503 13.6794
5 36.7765 79.6405 13.4387
12 34.5817 82.5837 13.9635
10 33.0553 84.7413 11.3863
15 32.549 83.8332 7.83581
7 29.3777 82.2762 6.60677
8 29.8364 79.5406 4.20174
6 29.1586 79.8107 0.538426
18 26.1748 78.0857 -0.738117
14 26.0366 77.8516 -4.4331
13 26.859 74.6162 -6.00027
8 31.5737 73.6756 -1.76748
15 34.4483 75.9282 -1.76869
7 34.0734 79.5278 -1.04156
16 33.212 81.0187 2.28761
7 33.5227 84.6763 2.80587
18 35.3768 86.0635 5.70949
17 33.9058 91.9964 8.06852
11 31.4625 94.0588 6.15352
11 28.6974 99.4554 4.62288
12 28.7143 103.16 4.04095
4 28.9776 105.346 6.96712
3 26.897 108.353 7.2013
3 27.4121 110.793 9.95221
3 24.9967 110.877 12.7204
18 24.4688 107.75 14.6086
3 29.779 104.423 13.3985
7 31.3612 101.829 15.5214
19 30.9551 98.1756 14.9655
4 27.6038 96.9454 13.9231
7 26.4981 93.5916 14.8718
12 27.5606 88.2405 11.7655
6 30.3486 87.9813 14.1945
17 29.5106 88.2771 17.7538
4 26.6449 86.1629 18.5446
21 29.3711 80.8742 21.0259
10 30.8607 82.8632 23.7665
10 28.6425 84.4936 26.2233
15 25.7799 86.5518 25.11
6 23.13 87.8924 27.3765
17 21.4074 91.0964 26.6641
12 20.5251 93.792 29.1117
21 17.3492 94.318 30.9806
12 17.2991 97.2105 33.2708
9 20.6823 98.5129 33.8933
9 23.5509 98.4641 31.5289
21 25.7917 95.5423 31.3618
6 25.4615 92.9014 28.8008
17 29.7326 87.9073 27.8328
13 30.8617 84.7737 29.4353
5 33.2143 82.5967 27.5717
13 31.795 79.7036 25.772
13 30.3017 76.6562 27.2057
22 10.9902 81.4475 35.1685
22 13.126 80.5183 31.7572
22 10.747 81.1958 28.972
22 12.89 79.2628 25.8084
22 11.4248 80.0173 21.8446
22 13.6842 77.5379 20.8486
22 16.0347 79.3143 17.0416
22 15.4074 77.872 13.8701
22 20.2832 77.6189 11.7164
22 19.2169 78.1154 9.16889
22 22.3712 78.2868 7.4988
22 24.3251 81.6985 8.59798
22 22.6674 83.3244 10.2534
22 19.1243 83.6324 9.49102
22 16.8707 83.9878 12.7359
22 13.6729 81.9849 13.1257
22 10.2497 82.3399 15.9756
22 7.7849 81.7552 16.382
22 5.9034 84.3697 17.8391
22 1.70822 83.9431 17.2299
22 0.0435132 86.9945 17.6892
22 -3.84034 87.0642 17.7779
22 -5.00226 86.0255 20.2152
22 -5.21535 82.3234 19.1371
22 -4.31832 80.4874 15.747
22 -1.51242 81.6097 13.9352
22 2.50814 80.9656 15.5952
22 5.30078 84.0081 12.4693
22 7.2761 83.5106 11.6213
22 10.1823 86.1368 13.5736
22 14.8274 85.729 14.418
22 15.8758 88.6003 17.6955
22 18.3128 90.1586 16.3219
22 17.2048 93.0673 18.0205
22 18.939 96.9785 16.9844
22 15.612 99.5811 16.598
22 12.8403 99.0677 17.8268
22 9.03137 97.4347 15.5559
22 8.26926 94.1976 14.8544
22 5.33313 93.7888 13.1114
22 6.14577 90.9033 10.5465
22 3.12641 89.1264 8.19313
22 0.430013 91.7203 8.09784
22 -2.98051 89.4482 5.08007
22 -3.46481 91.1943 2.00287
22 -0.377343 93.7095 0.406417
22 -2.45461 94.7125 -2.25856
22 -0.765922 92.7677 -5.77338
22 3.22014 93.1296 -6.70725
22 6.25385 94.2392 -3.61299
22 7.74376 91.9821 -2.71186
22 7.33611 90.2394 0.916453
22 2.37009 88.4763 0.831815
22 2.92268 85.7133 -0.933895
22 3.47196 81.9165 1.92512
22 5.46986 82.6831 3.62615
22 3.34085 83.7268 7.20446
22 0.695958 86.6556 7.75504
22 -1.3251 87.9525 10.2017
22 -5.44181 87.2151 9.35692
22 -7.04772 90.4427 10.4716
22 -10.3786 89.6434 11.4669
22 -10.3368 86.6366 13.5633
22 -8.22458 85.335 16.3965
22 -10.0012 88.3114 20.0256
22 -8.81903 90.874 20.2202
22 -7.04336 92.5835 18.1757
22 -8.06213 95.5269 18.7277
22 -8.04233 98.6248 14.8607
22 -5.7947 101.211 14.8098
22 -4.50533 102.029 11.4723
22 -2.61704 103.822 11.1255
22 0.447048 103.873 7.79068
22 4.13705 103.69 9.24769
22 7.80099 102.087 6.80395
22 10.4325 102.129 9.61542
22 13.4747 101.563 6.34542
22 16.4421 101.613 8.4129
22 19.4213 98.8069 6.56301
22 17.7138 96.8968 3.85806
22 14.2267 96.7402 2.7958
22 11.3333 99.1628 3.09615
22 8.60238 96.904 4.47048
22 5.67077 99.2094 6.29957
22 3.3337 98.0213 7.47348
22 0.0732182 100.326 10.3534
22 -0.473817 99.085 13.8475
22 -2.92094 97.6722 14.816
22 -3.52325 95.2157 18.1783
22 -2.63127 91.3965 18.5808
22 -1.91585 90.0571 21.0606
22 1.6744 88.0872 21.7631
22 2.51793 84.7211 23.3212
22 6.38835 83.6895 23.011
22 6.03524 80.8199 19.8437
22 4.55414 78.6907 20.7907
22 2.41094 76.525 24.1604
22 5.03874 78.6117 26.9934
22 6.97255 81.4242 28.1529
22 4.68877 84.6011 28.6865
22 0.796904 86.2485 28.203
22 1.46098 89.2791 26.1788
22 -1.88218 91.3557 26.4828
22 -2.61397 94.3099 23.5898
22 -0.00765555 95.3333 21.8909
22 0.490679 97.3418 18.721
22 2.45772 95.3322 16.863
22 1.43332 97.3547 12.1467
22 2.35431 94.3963 10.3313
22 3.36531 94.1759 6.59284
22 2.14599 95.6308 3.08695
22 4.97984 97.9198 1.07144
22 7.53936 95.9924 0.676972
22 9.74989 97.7959 -2.46175
22 12.4853 95.1453 -3.63352
22 14.905 93.6052 -3.2778
22 14.7531 91.5737 0.677723
22 12.053 88.913 0.92067
22 11.6486 86.2025 0.233271
22 14.4678 83.8435 0.0665014
22 15.3561 82.5823 3.4909
22 12.4042 80.7494 6.95964
22 12.1088 83.3787 8.08024
22 9.33622 85.5326 8.01807
22 9.1666 88.2917 10.1739
22 11.1457 89.3171 12.7585
22 11.246 92.2966 15.964
22 11.4371 94.6514 17.4723
22 14.684 94.3388 20.1963
22 17.3681 97.2782 21.575
22 15.4606 99.2104 24.9897
22 12.9162 101.663 23.2592
22 13.6114 104.632 21.1762
22 14.5925 103.695 17.8682
22 11.9398 102.844 15.033
22 9.20803 104.551 13.1602
22 7.14556 106.213 15.7011
22 5.30677 104.729 19.5986
22 4.18923 101.505 19.6832
22 5.95485 98.4795 21.8154
22 7.35159 95.9096 18.9466
22 10.5125 94.4146 21.4666
22 10.5626 96.5513 24.1864
22 8.78507 97.1345 25.4742
22 6.25148 95.2051 28.2711
22 6.27057 91.9302 29.8862
22 8.2167 93.1341 33.5305
22 6.08956 95.3819 34.5641
22 4.29977 93.7346 37.8364
22 2.48245 90.1103 36.5652
22 5.79721 89.0101 32.947
22 8.63659 87.004 33.4532
22 9.97855 88.2269 36.7908
22 13.0036 90.7139 35.3075
22 14.3086 91.4541 31.9339
22 18.3238 90.3139 30.4178
22 18.6844 88.3953 28.4422
22 20.1457 85.7668 26.2324
22 20.0596 85.3679 22.8238
22 22.5125 81.4971 21.9644
22 24.1584 81.6751 19.0207
22 24.7438 76.6188 16.4903
22 27.2217 77.8434 13.957
22 27.4016 75.3426 11.8061
22 23.8925 74.9168 9.89418
22 22.8399 72.5191 11.0258
22 22.5147 70.0485 15.2265
22 19.1323 69.6293 16.0534
22 18.6008 72.9485 17.7892
22 19.9718 75.7798 15.774
22 21.2395 78.839 18.5823
22 18.5539 80.3672 21.6791
22 17.2085 82.8456 23.0916
22 14.7392 82.1039 25.6974
22 14.8002 85.8381 28.3213
22 14.5254 87.4007 30.8552
22 17.1873 84.5169 33.7009
22 20.7902 83.5694 31.8404
22 20.3008 79.9021 31.4407
22 22.2408 78.0538 31.9546
22 23.2536 75.6002 28.8458
22 26.3511 78.1413 27.0477
22 28.518 80.0823 27.8178
22 30.7591 79.3421 30.5823
22 33.6855 81.3449 32.5023
22 31.5637 84.8144 34.5524
22 28.755 86.7091 32.6663
22 30.4606 89.4302 32.5407
22 29.237 92.8772 31.6901
22 30.8358 96.165 29.6067
22 29.1629 99.9694 29.6013
22 27.107 101.07 27.0285
22 26.8707 103.782 25.4376
22 23.5789 106.298 24.8197
22 21.0745 104.275 25.2876
22 18.9755 102.832 21.8303
22 20.2619 100.319 21.4944
22 23.5641 98.8607 21.1129
22 26.2251 100.465 22.7108
22 28.7091 99.4539 23.6805
22 32.0887 101.413 24.0266
22 34.6317 99.373 20.7287
22 38.5565 98.9781 22.034
22 40.659 99.1827 20.4192
22 40.5778 95.91 16.782
22 44.0952 93.0681 18.0872
22 44.4791 91.2648 15.5254
22 47.545 89.2248 14.9759
22 49.9774 89.8865 12.7701
22 51.2678 93.6798 13.1916
22 46.6933 95.8651 11.9022
22 45.126 96.6083 13.7165
22 41.8962 98.0904 12.0987
22 40.7185 100.005 15.2296
22 42.1857 102.435 16.7379
22 41.2246 104.485 20.4479
22 38.1086 104.555 21.2577
22 35.9103 103.059 18.8387
22 31.2511 102.1 20.6486
22 29.8656 99.475 18.5565
22 25.9388 97.2856 18.7897
22 25.7769 95.7123 18.2445
22 22.9858 94.574 16.7906
22 21.879 90.3062 16.6757
22 22.0108 89.8204 13.1967
22 22.8555 90.757 10.5035
22 24.5144 89.3053 7.77288
22 28.1374 90.3644 8.60298
22 30.1113 91.3332 10.1786
22 30.5147 96.0974 10.7053
22 31.21 97.9797 8.56549
22 31.7333 102.307 6.91796
22 33.5543 105.295 7.37376
22 36.4897 103.725 8.61849
22 37.0326 99.951 7.33961
22 37.755 98.8695 5.0135
22 42.6322 97.9453 3.25401
22 44.7619 97.6275 6.14097
22 45.1385 94.2441 8.34522
22 42.1258 91.8804 6.08744
22 43.0027 91.0436 3.1001
22 45.7128 89.8528 1.77277
22 46.8919 86.0318 2.87938
22 43.0605 85.0797 3.3118
22 39.8095 86.8795 2.01974
22 38.6977 86.9883 -1.05049
22 36.658 89.4425 -1.97694
22 34.5834 89.082 -4.09177
22 32.5257 92.9326 -5.03418
22 30.3965 93.9908 -2.30707
22 31.4534 94.2804 0.53478
22 32.5369 91.3095 2.01842
22 35.1513 90.1372 1.60273
22 35.2643 86.9624 -0.306756
22 37.1991 83.8396 1.04982
22 37.6686 80.2686 -1.23174
22 37.599 76.3886 0.529104
22 40.6248 75.8667 0.598109
22 43.213 78.0247 4.53307
22 41.9066 77.3763 7.01702
22 44.0449 77.8538 10.6843
22 47.1523 80.6027 9.95443
22 46.6795 83.6901 9.53777
22 44.8846 86.9037 11.5042
22 43.5851 85.0782 14.1575
22 41.4178 88.4214 13.9563
22 40.6092 89.5577 18.2855
22 37.8907 91.6167 19.9435
22 38.0371 94.8496 21.7987
22 35.4394 95.6296 24.9888
22 36.9664 95.7066 28.3882
22 38.633 94.2894 29.0096
22 39.8665 91.3956 28.0139
22 39.9125 91.1796 23.4061
22 37.9611 88.6459 23.0135
22 39.6008 85.2728 21.481
22 40.0334 84.8024 17.1536
22 41.5715 82.4498 15.6738
22 40.7766 79.7731 13.6621
22 36.7039 79.4847 13.4168
22 34.7923 81.9557 14.0558
22 33.3737 84.5943 11.3218
22 31.8731 83.8634 7.27358
22 29.8138 82.2238 6.51102
22 30.3375 79.0922 3.37959
22 29.0513 78.5479 1.4324
22 26.2897 78.2915 -1.12121
22 25.4357 77.708 -4.14656
22 27.8685 74.9489 -6.20185
22 29.2492 72.673 -4.89459
22 30.7732 73.8429 -2.25328
22 34.4139 75.9929 -1.19569
22 33.9116 80.59 -1.17299
22 33.6363 80.6783 2.29122
22 32.8009 84.1373 2.78646
22 34.7008 85.2923 6.00127
22 33.4756 88.9085 8.06619
22 34.2985 92.4693 8.15989
22 31.2942 94.3185 6.02311
22 31.8469 98.0261 5.27771
22 28.5478 99.7493 4.96089
22 28.7413 103.405 4.02272
22 28.3669 105.194 7.88164
22 26.5101 108.126 7.46488
22 27.2249 111.462 9.88919
22 24.8401 110.752 12.2989
22 25.0987 109.089 15.4117
22 26.7937 104.967 13.0897
22 29.6872 104.048 13.2127
22 31.6097 101.917 15.2292
22 31.3502 98.7645 14.9632
22 28.4058 97.1878 14.1345
22 26.7099 93.2353 14.3488
22 25.9098 90.6264 12.0821
22 26.9396 88.6758 11.2692
22 29.8009 88.412 14.5358
22 29.0788 88.799 17.6831
22 26.4769 86.1364 18.1266
22 27.9295 82.4331 18.9586
22 30.5072 80.7438 21.2574
22 32.1233 83.4626 24.0014
22 28.2818 84.1075 26.1905
22 25.619 86.7169 24.404
22 22.4882 87.7083 28.4409
22 21.2705 90.9093 26.1215
22 20.9696 93.4469 28.8935
22 17.4374 93.8147 30.6684
22 17.2963 97.6498 33.6152
22 20.7132 98.6009 34.6987
22 23.6097 98.3846 31.6906
22 25.6191 95.1525 31.5234
22 25.61 92.7076 29.0863
22 26.8351 89.7776 29.8366
22 31.072 87.9563 27.8556
22 30.8935 84.6017 28.3012
22 32.6513 82.0176 26.6608
22 31.5029 79.8832 25.4885
22 30.2602 76.7162 26.294
23 7.72776 30.3097 35.5819
23 12.42 29.6224 31.9628
24 16.0834 34.3381 32.1514
24 20.6168 33.1821 28.3927
24 20.6435 37.8778 24.6601
23 26.2242 39.6502 23.04
24 29.2988 35.7355 19.6775
24 35.1927 36.6136 19.0969
24 37.4731 42.0531 18.1858
24 37.7151 43.3306 12.307
24 41.1127 39.4147 9.33713
23 44.6587 42.8672 5.93016
24 48.4861 45.9439 9.37777
24 54.0718 46.2483 7.17981
24 54.8756 48.7981 1.78088
24 60.2943 51.3065 1.35641
24 63.3183 50.361 -3.77137
24 68.9367 52.4634 -3.27759
25 70.7599 53.8239 -8.90135
24 76.6821 55.0302 -8.63343
